128
Lattice="9.79061015 0.00993187 -3.36378879 -4.5818889 10.50920471 -1.07734721 0.09768214 0.01957379 12.93498968" Properties=species:S:1:pos:R:3:REF_forces:R:3 REF_stress="0.00417995136 -0.001849224 0.00075497136 -0.001849224 0.01109017728 0.0031764907200000003 0.00075497136 0.0031764907200000003 0.00472816656" REF_energy=-807.4020406 material_id=ABABAK ionic_step=12 pbc="T T T"
H        0.61019000       4.00742000      10.01501000       0.03932900      -0.45369400       0.00868800
H        4.69621000       6.53129000      -1.52116000      -0.03932900       0.45369400      -0.00868800
H        0.93912000       6.09065000      -1.71939000      -0.00364800      -0.12610400      -0.10125800
H        4.36728000       4.44806000      10.21325000       0.00364800       0.12610400       0.10125800
H        1.95899000       6.05418000       0.55278000       0.02459400      -0.00936400       0.00479900
H        3.34741000       4.48453000       7.94108000      -0.02459400       0.00936400      -0.00479900
H        2.51780000       3.93344000       1.61723000       0.07108200      -0.42820900       0.08694700
H        2.78861000       6.60527000       6.87662000      -0.07108200       0.42820900      -0.08694700
H        5.61852000       9.13558000       6.31422000      -0.32852900       0.26442100      -0.22384900
H       -0.31211000       1.40313000       2.17964000       0.32852900      -0.26442100       0.22384900
H        6.03435000       6.71901000       6.40598000      -0.10143400       0.17447800      -0.03825400
H       -0.72795000       3.81970000       2.08788000       0.10143400      -0.17447800       0.03825400
H       -2.00532000       5.79881000      11.25503000       0.06501400      -0.20442900       0.02645700
H        7.31172000       4.73990000      -2.76117000      -0.06501400       0.20442900      -0.02645700
H       -0.76842000       7.32133000      -0.27156000       0.14313100       0.08893000       0.09018000
H        6.07483000       3.21738000       8.76542000      -0.14313100      -0.08893000      -0.09018000
H       -1.15737000       9.75113000      -0.34769000       0.14329500       0.31870100       0.15016700
H        6.46377000       0.78758000       8.84155000      -0.14329500      -0.31870100      -0.15016700
H        8.72958000       0.30554000       7.02750000       0.01765000      -0.03894700       0.21613000
H       -3.42318000      10.23317000       1.46635000      -0.01765000       0.03894700      -0.21613000
H        9.05518000       0.16891000       5.31724000       0.28152900      -0.04114600      -0.10405300
H       -3.74877000      10.36980000       3.17662000      -0.28152900       0.04114600       0.10405300
H        8.18647000       2.70823000       6.75331000      -0.09070700       0.22987600       0.26033500
H       -2.88007000       7.83048000       1.74054000       0.09070700      -0.22987600      -0.26033500
H        8.58779000       2.62530000       5.04444000       0.25332800       0.22415300      -0.29088400
H       -3.28138000       7.91341000       3.44942000      -0.25332800      -0.22415300       0.29088400
H        6.36802000       1.02524000       6.35447000      -0.23572100      -0.20401000       0.21334100
H       -1.06161000       9.51347000       2.13939000       0.23572100       0.20401000      -0.21334100
H        6.75497000       0.99191000       4.64937000       0.06943200      -0.19081800      -0.21502500
H       -1.44857000       9.54680000       3.84448000      -0.06943200       0.19081800       0.21502500
H        5.76317000       3.44845000       6.15887000      -0.08109700       0.17181400       0.20469000
H       -0.45677000       7.09026000       2.33498000       0.08109700      -0.17181400      -0.20469000
H        6.15225000       3.41657000       4.45206000       0.21425000       0.15166700      -0.20687000
H       -0.84585000       7.12214000       4.04180000      -0.21425000      -0.15166700       0.20687000
H        4.36116000       1.69218000       4.05911000       0.17394300      -0.26108400      -0.19862400
H        0.94525000       8.84653000       4.43474000      -0.17394300       0.26108400       0.19862400
H        3.95867000       1.76891000       5.76125000      -0.13164300      -0.25145700       0.25342600
H        1.34773000       8.76980000       2.73261000       0.13164300       0.25145700      -0.25342600
H        3.73217000       4.05961000       3.77027000       0.33407000       0.26619200      -0.21998700
H        1.57424000       6.47910000       4.72358000      -0.33407000      -0.26619200       0.21998700
H        3.36902000       4.17545000       5.48316000       0.00172900       0.29202700       0.22618200
H        1.93738000       6.36326000       3.01069000      -0.00172900      -0.29202700      -0.22618200
H        1.95360000       2.27750000       3.51768000       0.06367600      -0.04597200      -0.05269500
H        3.35280000       8.26121000       4.97618000      -0.06367600       0.04597200       0.05269500
H        1.33125000       3.85138000       4.04677000      -0.00921100      -0.10063300       0.06649700
H        3.97516000       6.68733000       4.44708000       0.00921100       0.10063300      -0.06649700
H        1.54728000       2.53173000       5.22914000      -0.13231600      -0.07158700       0.02756200
H        3.75912000       8.00698000       3.26471000       0.13231600       0.07158700      -0.02756200
H       -3.62132000       9.24101000       6.14684000      -0.19624100       0.09015700      -0.11470400
H        8.92773000       1.29770000       2.34701000       0.19624100      -0.09015700       0.11470400
H       -2.78511000       6.94367000       6.24781000      -0.15812000      -0.07598200      -0.09501800
H        8.09152000       3.59504000       2.24604000       0.15812000       0.07598200       0.09501800
H        0.48501000       8.21562000       8.69521000       0.20062500       0.00882900       0.12529300
H        4.82140000       2.32309000      -0.20136000      -0.20062500      -0.00882900      -0.12529300
H       -0.35946000      10.51834000       8.65445000       0.10657100       0.16643600       0.06874800
H        5.66586000       0.02037000      -0.16059000      -0.10657100      -0.16643600      -0.06874800
H       -0.34463000       5.56837000       6.60013000       0.07178200       0.08968700       0.03233500
H        5.65104000       4.97034000       1.89372000      -0.07178200      -0.08968700      -0.03233500
H       -1.38170000       5.29713000       7.98971000      -0.04812900       0.14243400       0.00799600
H        6.68810000       5.24158000       0.50414000       0.04812900      -0.14243400      -0.00799600
H        0.26753000       5.88878000       8.24619000      -0.01161700       0.05213600      -0.12493400
H        5.03888000       4.64993000       0.24767000       0.01161700      -0.05213600       0.12493400
C        1.04295000       3.98222000      11.01341000      -0.16749500      -0.05731000      -0.23979200
C        4.26345000       6.55649000      -2.51956000       0.16749500       0.05731000       0.23979200
C        1.18486000       5.13381000      -1.25892000       0.15410800       0.11091300       0.45793500
C        4.12154000       5.40490000       9.75278000      -0.15410800      -0.11091300      -0.45793500
C        1.76455000       5.11396000       0.03857000      -0.16639700      -0.23308700      -0.32897600
C        3.54185000       5.42475000       8.45529000       0.16639700       0.23308700       0.32897600
C        2.08078000       3.90518000       0.62319000       0.05341900       0.05279200       0.10864700
C        3.22562000       6.63353000       7.87066000      -0.05341900      -0.05279200      -0.10864700
C        1.84186000       2.67875000      -0.05381000      -0.04661700       0.16401400      -0.15657900
C        3.46454000       7.85996000       8.54767000       0.04661700      -0.16401400       0.15657900
C        1.22843000       1.45432000      11.12286000      -0.09299900       0.05363300      -0.13403800
C        4.07798000       9.08439000      -2.62901000       0.09299900      -0.05363300       0.13403800
C        1.75744000       0.64785000      12.16346000      -0.10388100      -0.20031100      -0.23638700
C        3.54896000       9.89086000      -3.66960000       0.10388100       0.20031100       0.23638700
C       -2.64804000       9.68534000      11.12005000       0.05380000      -0.34710100      -0.02083000
C        7.95444000       0.85337000      -2.62620000      -0.05380000       0.34710100       0.02083000
C       -3.39945000       8.77318000      10.33819000       0.25426800       0.13051100       0.14350600
C        8.70586000       1.76553000      -1.84434000      -0.25426800      -0.13051100      -0.14350600
C        6.61828000       7.40503000       7.02207000       0.13427800       0.00666300       0.05428800
C       -1.31188000       3.13368000       1.47178000      -0.13427800      -0.00666300      -0.05428800
C       -2.18431000       6.86766000      11.21862000      -0.05465200       0.47316400       0.03755800
C        7.49072000       3.67105000      -2.72477000       0.05465200      -0.47316400      -0.03755800
C       -1.53210000       7.73009000      -0.92977000      -0.08958000      -0.18698100      -0.02991300
C        6.83850000       2.80862000       9.42362000       0.08958000       0.18698100       0.02991300
C       -1.75560000       9.10588000      -0.97351000      -0.23728200      -0.09208800      -0.15617100
C        7.06200000       1.43283000       9.46737000       0.23728200       0.09208800       0.15617100
C        9.10880000       0.86385000       6.16422000      -0.16891300      -0.01263400       0.13430200
C       -3.80239000       9.67486000       2.32964000       0.16891300       0.01263400      -0.13430200
C        8.18316000       2.05477000       5.87894000       0.02057700      -0.08338700      -0.06598000
C       -2.87675000       8.48394000       2.61491000      -0.02057700       0.08338700       0.06598000
C        6.74679000       1.63788000       5.53255000       0.15694400       0.05554600       0.11652700
C       -1.44039000       8.90083000       2.96130000      -0.15694400      -0.05554600      -0.11652700
C        5.77969000       2.79889000       5.27624000       0.07546800      -0.14774500      -0.05823700
C       -0.47329000       7.73982000       3.21762000      -0.07546800       0.14774500       0.05823700
C        4.35806000       2.35419000       4.92978000       0.11739300       0.03821700       0.11333700
C        0.94835000       8.18452000       3.56407000      -0.11739300      -0.03821700      -0.11333700
C        3.39155000       3.48765000       4.63545000      -0.20383400      -0.11006400      -0.14305600
C        1.91486000       7.05106000       3.85840000       0.20383400       0.11006400       0.14305600
C        1.97598000       3.00553000       4.33978000      -0.18252500       0.12777500       0.06475200
C        3.33042000       7.53318000       4.15408000       0.18252500      -0.12777500      -0.06475200
C       -2.06365000      10.06719000       7.40930000       0.19732300      -0.61524700      -0.00443200
C        7.37006000       0.47152000       1.08456000      -0.19732300       0.61524700       0.00443200
C       -2.73032000       9.03094000       6.72746000      -0.06417500       0.29228400      -0.01703200
C        8.03673000       1.50778000       1.76640000       0.06417500      -0.29228400       0.01703200
C       -2.24980000       7.72527000       6.78078000       0.02798900       0.01953100      -0.01768300
C        7.55620000       2.81344000       1.71307000      -0.02798900      -0.01953100       0.01768300
C       -1.09487000       7.38705000       7.49970000      -0.11732400       0.43030500       0.04318400
C        6.40128000       3.15166000       0.99415000       0.11732400      -0.43030500      -0.04318400
C       -0.42330000       8.43241000       8.14443000      -0.04398300       0.02101800       0.02375300
C        5.72971000       2.10630000       0.34943000       0.04398300      -0.02101800      -0.02375300
C       -0.89425000       9.74440000       8.11558000      -0.15336000       0.21803200      -0.03368000
C        6.20066000       0.79431000       0.37827000       0.15336000      -0.21803200       0.03368000
C       -0.61068000       5.97768000       7.58959000       0.08548300      -0.45574500       0.03858600
C        5.91709000       4.56103000       0.90427000      -0.08548300       0.45574500      -0.03858600
N        1.35367000       2.76965000      11.59374000       0.01756400       0.32160600       0.05054700
N        3.95274000       7.76906000      -3.09988000      -0.01756400      -0.32160600      -0.05054700
N        2.08450000       1.40096000       0.28875000      -0.15768100       0.11001800      -0.35508300
N        3.22190000       9.13776000       8.20510000       0.15768100      -0.11001800       0.35508300
N        0.74122000       1.20743000       9.81640000      -0.04825700       0.01604800       0.09227300
N        4.56519000       9.33128000      -1.32255000       0.04825700      -0.01604800      -0.09227300
O        2.90091000       2.11338000       8.92656000       0.05095700       0.00613800      -0.20157100
O        2.40549000       8.42533000      -0.43271000      -0.05095700      -0.00613800       0.20157100
O        1.06672000       1.40184000       7.32487000       0.12419700       0.07365900       0.15770100
O        4.23969000       9.13687000       1.16899000      -0.12419700      -0.07365900      -0.15770100
S        1.84467000       1.20852000       8.53178000      -0.16378000      -0.41091600       0.39888700
S        3.46174000       9.33019000      -0.03792000       0.16378000       0.41091600      -0.39888700
